<VTKFile type="UnstructuredGrid" version="1.0" header_type="UInt32">
<UnstructuredGrid>
<Piece NumberOfPoints="88" NumberOfCells="66">
<Points>
<DataArray type="Float32" NumberOfComponents="3" format="ascii">
2.36423945 2.6329296 0 2.36423945 2.80721347 0
2.34111499 2.76592677 0 2.31591499 2.72311722 0
2.28863985 2.67878483 0 2.25928959 2.6329296 0
2.36423945 2.6329296 0 2.61423945 2.6329296 0
2.61423945 2.8829296 0 2.40316622 2.88292936 0
2.38467828 2.8457871 0 2.36423986 2.80721347 0
2.61423945 2.8829296 0 2.61423945 3.1329296 0
2.48115918 3.13292954 0 2.47854169 3.10691308 0
2.47388659 3.07940132 0 2.46719388 3.05039426 0
2.45846356 3.01989188 0 2.44769564 2.98789421 0
2.43489011 2.95440123 0 2.42004697 2.91941294 0
2.40316622 2.8829296 0 1.86423945 3.3829296 0
1.61423945 3.3829296 0 1.61423945 3.19590155 0
1.64451909 3.21099699 0 1.67507598 3.22530054 0
1.7059101 3.23881221 0 1.73702147 3.25153199 0
1.76841008 3.2634599 0 1.80007593 3.27459591 0
1.83201902 3.28494005 0 1.86423935 3.2944923 0
2.11423945 3.3829296 0 1.86423945 3.3829296 0
1.86423945 3.2944923 0 1.92528289 3.31024112 0
1.98729741 3.32321653 0 2.05028292 3.33341851 0
2.11423941 3.34084707 0 2.36423945 3.3829296 0
2.11423945 3.3829296 0 2.11423945 3.34084707 0
2.15079115 3.34381714 0 2.18748688 3.34585389 0
2.22248136 3.34641614 0 2.25526156 3.34535342 0
2.28582747 3.34266575 0 2.31417908 3.33835311 0
2.34031641 3.33241551 0 2.36423945 3.32485295 0
2.61423945 3.1329296 0 2.61423945 3.3829296 0
2.36423945 3.3829296 0 2.36423946 3.32485295 0
2.37947738 3.31867751 0 2.3936579 3.3117261 0
2.40678104 3.30399872 0 2.41884679 3.29549537 0
2.42985514 3.28621605 0 2.4398061 3.27616076 0
2.44869967 3.2653295 0 2.45653585 3.25372228 0
2.46331463 3.24133908 0 2.46903603 3.22817991 0
2.47370003 3.21424477 0 2.47730664 3.19953367 0
2.47985586 3.18404659 0 2.48134769 3.16778354 0
2.48178213 3.15074453 0 2.48115918 3.1329296 0
1.61423945 3.3829296 0 1.86423945 3.3829296 0
1.61423945 3.6329296 0 1.86423945 3.6329296 0
1.86423945 3.3829296 0 2.11423945 3.3829296 0
1.86423945 3.6329296 0 2.11423945 3.6329296 0
2.11423945 3.3829296 0 2.36423945 3.3829296 0
2.11423945 3.6329296 0 2.36423945 3.6329296 0
2.36423945 3.3829296 0 2.61423945 3.3829296 0
2.36423945 3.6329296 0 2.61423945 3.6329296 0
</DataArray>
</Points>
<Cells>
<DataArray type="Int64" Name="connectivity" format="ascii">
4 0 5 3 0 4
0 3 2 0 2 1
10 6 11 10 8 6
6 8 7 8 10 9
21 12 22 20 12 21
19 12 20 18 12 19
17 12 18 12 17 16
12 16 15 12 15 14
12 14 13 23 26 25
23 27 26 23 28 27
28 23 29 29 23 30
23 25 24 30 23 31
31 23 32 32 23 33
34 37 36 37 34 38
34 36 35 38 34 39
39 34 40 41 44 43
41 45 44 41 43 42
41 46 45 46 41 47
47 41 48 48 41 49
49 41 50 50 41 51
70 52 71 69 52 70
68 52 69 67 52 68
66 52 67 65 52 66
64 52 65 63 52 64
52 60 59 62 52 63
52 62 61 52 61 60
52 59 54 54 57 56
54 59 58 54 58 57
54 56 55 52 54 53
72 74 73 73 74 75
76 78 77 77 78 79
80 82 81 81 82 83
84 86 85 85 86 87
</DataArray>
<DataArray type="Int64" Name="offsets" format="ascii">
3 6 9 12 15 18
21 24 27 30 33 36
39 42 45 48 51 54
57 60 63 66 69 72
75 78 81 84 87 90
93 96 99 102 105 108
111 114 117 120 123 126
129 132 135 138 141 144
147 150 153 156 159 162
165 168 171 174 177 180
183 186 189 192 195 198
</DataArray>
<DataArray type="UInt8" Name="types" format="ascii">
69 69 69 69 69 69
69 69 69 69 69 69
69 69 69 69 69 69
69 69 69 69 69 69
69 69 69 69 69 69
69 69 69 69 69 69
69 69 69 69 69 69
69 69 69 69 69 69
69 69 69 69 69 69
69 69 69 69 69 69
69 69 69 69 69 69
</DataArray>
</Cells>
<PointData Scalars="g">
<DataArray Name="g" type="Float32" NumberOfComponents="1" format="ascii">
0 0.420225506 0.291014923 0.175422518 0.0771296854 0
0 0 0.707258457 0.619054904 0.520504528 0.420225625
0.707258457 1.31236311 1.38908287 1.31357909 1.23383254 1.14909125
1.05853053 0.96125298 0.856288496 0.742594252 0.619055505 2.01589274
2.04982725 2.04976928 2.04479666 2.03992317 2.03513871 2.03043293
2.0257953 2.02121504 2.01668117 2.01218248 1.91911023 2.01589274
2.01218246 1.98628787 1.96090653 1.93572343 1.91041285 1.81531395
1.91911023 1.91041284 1.88882499 1.86768996 1.84719971 1.8267514
1.80559437 1.78308407 1.75868205 1.73195598 1.31236311 1.79925452
1.81531395 1.73195597 1.72010732 1.70693302 1.69241062 1.67652774
1.6592821 1.64068152 1.62074387 1.59949715 1.57697941 1.55323882
1.52833361 1.50233212 1.47531276 1.44736403 1.41858454 1.38908304
2.04982725 2.01589274 2.04866857 2.01931155 2.01589274 1.91911023
2.01931155 1.9486634 1.91911023 1.81531395 1.9486634 1.88186179
1.81531395 1.79925452 1.88186179 1.85137355 
</DataArray>
</PointData>
<CellData>
</CellData>
</Piece>
</UnstructuredGrid>
</VTKFile>